LAMMPS (Plimpton, 1995) was used to perform all MD simulations in this study.